# vtk DataFile Version 2.0
VTK from Matlab
ASCII
DATASET STRUCTURED_POINTS
DIMENSIONS 65 65 1
SPACING 1 1 1
ORIGIN 0 0 0
POINT_DATA 4225
SCALARS u float 1
LOOKUP_TABLE default
0.00 0.00 0.00 0.00 0.00 0.00 0.00 0.00 0.00 0.00 0.00 0.00 0.00 0.00 0.00 0.00 0.00 0.00 0.00 0.00 0.00 0.00 0.00 0.00 0.00 0.00 0.00 0.00 0.00 0.00 0.00 0.00 0.00 0.00 0.00 0.00 0.00 0.00 0.00 0.00 0.00 0.00 0.00 0.00 0.00 0.00 0.00 0.00 0.00 0.00 0.00 0.00 0.00 0.00 0.00 0.00 0.00 0.00 0.00 0.00 0.00 0.00 0.00 0.00 0.00 0.00 -0.00 -0.00 -0.01 -0.01 -0.01 -0.01 -0.01 -0.01 -0.01 -0.01 -0.01 -0.01 -0.01 -0.00 -0.00 0.00 0.00 0.00 0.01 0.01 0.01 0.01 0.01 0.01 0.01 0.01 0.01 0.01 0.01 0.00 0.00 -0.00 -0.00 -0.00 -0.01 -0.01 -0.01 -0.01 -0.01 -0.01 -0.01 -0.01 -0.01 -0.01 -0.01 -0.00 -0.00 0.00 0.00 0.00 0.01 0.01 0.01 0.01 0.01 0.01 0.01 0.01 0.01 0.01 0.01 0.00 0.00 0.00 0.00 -0.00 -0.01 -0.01 -0.01 -0.02 -0.02 -0.02 -0.02 -0.02 -0.02 -0.02 -0.01 -0.01 -0.01 -0.00 0.00 0.00 0.01 0.01 0.01 0.02 0.02 0.02 0.02 0.02 0.02 0.02 0.01 0.01 0.01 0.00 -0.00 -0.00 -0.01 -0.01 -0.01 -0.02 -0.02 -0.02 -0.02 -0.02 -0.02 -0.02 -0.01 -0.01 -0.01 -0.00 0.00 0.00 0.01 0.01 0.01 0.02 0.02 0.02 0.02 0.02 0.02 0.02 0.01 0.01 0.01 0.00 0.00 0.00 -0.01 -0.01 -0.02 -0.02 -0.02 -0.03 -0.03 -0.03 -0.03 -0.03 -0.02 -0.02 -0.02 -0.01 -0.01 0.00 0.01 0.01 0.02 0.02 0.02 0.03 0.03 0.03 0.03 0.03 0.02 0.02 0.02 0.01 0.01 -0.00 -0.01 -0.01 -0.02 -0.02 -0.02 -0.03 -0.03 -0.03 -0.03 -0.03 -0.02 -0.02 -0.02 -0.01 -0.01 0.00 0.01 0.01 0.02 0.02 0.02 0.03 0.03 0.03 0.03 0.03 0.02 0.02 0.02 0.01 0.01 0.00 0.00 -0.01 -0.01 -0.02 -0.03 -0.03 -0.04 -0.04 -0.04 -0.04 -0.04 -0.03 -0.03 -0.02 -0.01 -0.01 0.00 0.01 0.01 0.02 0.03 0.03 0.04 0.04 0.04 0.04 0.04 0.03 0.03 0.02 0.01 0.01 -0.00 -0.01 -0.01 -0.02 -0.03 -0.03 -0.04 -0.04 -0.04 -0.04 -0.04 -0.03 -0.03 -0.02 -0.01 -0.01 0.00 0.01 0.01 0.02 0.03 0.03 0.04 0.04 0.04 0.04 0.04 0.03 0.03 0.02 0.01 0.01 0.00 0.00 -0.01 -0.02 -0.03 -0.03 -0.04 -0.04 -0.05 -0.05 -0.05 -0.04 -0.04 -0.03 -0.03 -0.02 -0.01 0.00 0.01 0.02 0.03 0.03 0.04 0.04 0.05 0.05 0.05 0.04 0.04 0.03 0.03 0.02 0.01 -0.00 -0.01 -0.02 -0.03 -0.03 -0.04 -0.04 -0.05 -0.05 -0.05 -0.04 -0.04 -0.03 -0.03 -0.02 -0.01 0.00 0.01 0.02 0.03 0.03 0.04 0.04 0.05 0.05 0.05 0.04 0.04 0.03 0.03 0.02 0.01 0.00 0.00 -0.01 -0.02 -0.03 -0.04 -0.05 -0.05 -0.06 -0.06 -0.06 -0.05 -0.05 -0.04 -0.03 -0.02 -0.01 0.00 0.01 0.02 0.03 0.04 0.05 0.05 0.06 0.06 0.06 0.05 0.05 0.04 0.03 0.02 0.01 -0.00 -0.01 -0.02 -0.03 -0.04 -0.05 -0.05 -0.06 -0.06 -0.06 -0.05 -0.05 -0.04 -0.03 -0.02 -0.01 0.00 0.01 0.02 0.03 0.04 0.05 0.05 0.06 0.06 0.06 0.05 0.05 0.04 0.03 0.02 0.01 0.00 0.00 -0.01 -0.02 -0.04 -0.05 -0.05 -0.06 -0.06 -0.06 -0.06 -0.06 -0.05 -0.05 -0.04 -0.02 -0.01 0.00 0.01 0.02 0.04 0.05 0.05 0.06 0.06 0.06 0.06 0.06 0.05 0.05 0.04 0.02 0.01 -0.00 -0.01 -0.02 -0.04 -0.05 -0.05 -0.06 -0.06 -0.06 -0.06 -0.06 -0.05 -0.05 -0.04 -0.02 -0.01 0.00 0.01 0.02 0.04 0.05 0.05 0.06 0.06 0.06 0.06 0.06 0.05 0.05 0.04 0.02 0.01 0.00 0.00 -0.01 -0.03 -0.04 -0.05 -0.06 -0.07 -0.07 -0.07 -0.07 -0.07 -0.06 -0.05 -0.04 -0.03 -0.01 0.00 0.01 0.03 0.04 0.05 0.06 0.07 0.07 0.07 0.07 0.07 0.06 0.05 0.04 0.03 0.01 -0.00 -0.01 -0.03 -0.04 -0.05 -0.06 -0.07 -0.07 -0.07 -0.07 -0.07 -0.06 -0.05 -0.04 -0.03 -0.01 0.00 0.01 0.03 0.04 0.05 0.06 0.07 0.07 0.07 0.07 0.07 0.06 0.05 0.04 0.03 0.01 0.00 0.00 -0.02 -0.03 -0.04 -0.06 -0.06 -0.07 -0.08 -0.08 -0.08 -0.07 -0.06 -0.06 -0.04 -0.03 -0.02 0.00 0.02 0.03 0.04 0.06 0.06 0.07 0.08 0.08 0.08 0.07 0.06 0.06 0.04 0.03 0.02 -0.00 -0.02 -0.03 -0.04 -0.06 -0.06 -0.07 -0.08 -0.08 -0.08 -0.07 -0.06 -0.06 -0.04 -0.03 -0.02 0.00 0.02 0.03 0.04 0.06 0.06 0.07 0.08 0.08 0.08 0.07 0.06 0.06 0.04 0.03 0.02 0.00 0.00 -0.02 -0.03 -0.05 -0.06 -0.07 -0.08 -0.08 -0.08 -0.08 -0.08 -0.07 -0.06 -0.05 -0.03 -0.02 0.00 0.02 0.03 0.05 0.06 0.07 0.08 0.08 0.08 0.08 0.08 0.07 0.06 0.05 0.03 0.02 -0.00 -0.02 -0.03 -0.05 -0.06 -0.07 -0.08 -0.08 -0.08 -0.08 -0.08 -0.07 -0.06 -0.05 -0.03 -0.02 0.00 0.02 0.03 0.05 0.06 0.07 0.08 0.08 0.08 0.08 0.08 0.07 0.06 0.05 0.03 0.02 0.00 0.00 -0.02 -0.03 -0.05 -0.06 -0.07 -0.08 -0.09 -0.09 -0.09 -0.08 -0.07 -0.06 -0.05 -0.03 -0.02 0.00 0.02 0.03 0.05 0.06 0.07 0.08 0.09 0.09 0.09 0.08 0.07 0.06 0.05 0.03 0.02 -0.00 -0.02 -0.03 -0.05 -0.06 -0.07 -0.08 -0.09 -0.09 -0.09 -0.08 -0.07 -0.06 -0.05 -0.03 -0.02 0.00 0.02 0.03 0.05 0.06 0.07 0.08 0.09 0.09 0.09 0.08 0.07 0.06 0.05 0.03 0.02 0.00 0.00 -0.02 -0.04 -0.05 -0.07 -0.08 -0.09 -0.09 -0.09 -0.09 -0.09 -0.08 -0.07 -0.05 -0.04 -0.02 0.00 0.02 0.04 0.05 0.07 0.08 0.09 0.09 0.09 0.09 0.09 0.08 0.07 0.05 0.04 0.02 -0.00 -0.02 -0.04 -0.05 -0.07 -0.08 -0.09 -0.09 -0.09 -0.09 -0.09 -0.08 -0.07 -0.05 -0.04 -0.02 0.00 0.02 0.04 0.05 0.07 0.08 0.09 0.09 0.09 0.09 0.09 0.08 0.07 0.05 0.04 0.02 0.00 0.00 -0.02 -0.04 -0.05 -0.07 -0.08 -0.09 -0.09 -0.10 -0.09 -0.09 -0.08 -0.07 -0.05 -0.04 -0.02 0.00 0.02 0.04 0.05 0.07 0.08 0.09 0.09 0.10 0.09 0.09 0.08 0.07 0.05 0.04 0.02 -0.00 -0.02 -0.04 -0.05 -0.07 -0.08 -0.09 -0.09 -0.10 -0.09 -0.09 -0.08 -0.07 -0.05 -0.04 -0.02 0.00 0.02 0.04 0.05 0.07 0.08 0.09 0.09 0.10 0.09 0.09 0.08 0.07 0.05 0.04 0.02 0.00 0.00 -0.02 -0.04 -0.06 -0.07 -0.08 -0.09 -0.10 -0.10 -0.10 -0.09 -0.08 -0.07 -0.06 -0.04 -0.02 0.00 0.02 0.04 0.06 0.07 0.08 0.09 0.10 0.10 0.10 0.09 0.08 0.07 0.06 0.04 0.02 -0.00 -0.02 -0.04 -0.06 -0.07 -0.08 -0.09 -0.10 -0.10 -0.10 -0.09 -0.08 -0.07 -0.06 -0.04 -0.02 0.00 0.02 0.04 0.06 0.07 0.08 0.09 0.10 0.10 0.10 0.09 0.08 0.07 0.06 0.04 0.02 0.00 0.00 -0.02 -0.04 -0.06 -0.07 -0.08 -0.09 -0.10 -0.10 -0.10 -0.09 -0.08 -0.07 -0.06 -0.04 -0.02 0.00 0.02 0.04 0.06 0.07 0.08 0.09 0.10 0.10 0.10 0.09 0.08 0.07 0.06 0.04 0.02 -0.00 -0.02 -0.04 -0.06 -0.07 -0.08 -0.09 -0.10 -0.10 -0.10 -0.09 -0.08 -0.07 -0.06 -0.04 -0.02 0.00 0.02 0.04 0.06 0.07 0.08 0.09 0.10 0.10 0.10 0.09 0.08 0.07 0.06 0.04 0.02 0.00 0.00 -0.02 -0.04 -0.06 -0.07 -0.08 -0.09 -0.10 -0.10 -0.10 -0.09 -0.08 -0.07 -0.06 -0.04 -0.02 0.00 0.02 0.04 0.06 0.07 0.08 0.09 0.10 0.10 0.10 0.09 0.08 0.07 0.06 0.04 0.02 -0.00 -0.02 -0.04 -0.06 -0.07 -0.08 -0.09 -0.10 -0.10 -0.10 -0.09 -0.08 -0.07 -0.06 -0.04 -0.02 0.00 0.02 0.04 0.06 0.07 0.08 0.09 0.10 0.10 0.10 0.09 0.08 0.07 0.06 0.04 0.02 0.00 0.00 -0.02 -0.04 -0.06 -0.07 -0.08 -0.09 -0.10 -0.10 -0.10 -0.09 -0.08 -0.07 -0.06 -0.04 -0.02 0.00 0.02 0.04 0.06 0.07 0.08 0.09 0.10 0.10 0.10 0.09 0.08 0.07 0.06 0.04 0.02 -0.00 -0.02 -0.04 -0.06 -0.07 -0.08 -0.09 -0.10 -0.10 -0.10 -0.09 -0.08 -0.07 -0.06 -0.04 -0.02 0.00 0.02 0.04 0.06 0.07 0.08 0.09 0.10 0.10 0.10 0.09 0.08 0.07 0.06 0.04 0.02 0.00 0.00 -0.02 -0.04 -0.06 -0.07 -0.08 -0.09 -0.10 -0.10 -0.10 -0.09 -0.08 -0.07 -0.06 -0.04 -0.02 0.00 0.02 0.04 0.06 0.07 0.08 0.09 0.10 0.10 0.10 0.09 0.08 0.07 0.06 0.04 0.02 0.00 -0.02 -0.04 -0.06 -0.07 -0.08 -0.09 -0.10 -0.10 -0.10 -0.09 -0.08 -0.07 -0.06 -0.04 -0.02 0.00 0.02 0.04 0.06 0.07 0.08 0.09 0.10 0.10 0.10 0.09 0.08 0.07 0.06 0.04 0.02 0.00 0.00 -0.02 -0.04 -0.05 -0.07 -0.08 -0.09 -0.09 -0.10 -0.09 -0.09 -0.08 -0.07 -0.05 -0.04 -0.02 0.00 0.02 0.04 0.05 0.07 0.08 0.09 0.09 0.10 0.09 0.09 0.08 0.07 0.05 0.04 0.02 -0.00 -0.02 -0.04 -0.05 -0.07 -0.08 -0.09 -0.09 -0.10 -0.09 -0.09 -0.08 -0.07 -0.05 -0.04 -0.02 0.00 0.02 0.04 0.05 0.07 0.08 0.09 0.09 0.10 0.09 0.09 0.08 0.07 0.05 0.04 0.02 0.00 0.00 -0.02 -0.04 -0.05 -0.07 -0.08 -0.09 -0.09 -0.09 -0.09 -0.09 -0.08 -0.07 -0.05 -0.04 -0.02 0.00 0.02 0.04 0.05 0.07 0.08 0.09 0.09 0.09 0.09 0.09 0.08 0.07 0.05 0.04 0.02 -0.00 -0.02 -0.04 -0.05 -0.07 -0.08 -0.09 -0.09 -0.09 -0.09 -0.09 -0.08 -0.07 -0.05 -0.04 -0.02 0.00 0.02 0.04 0.05 0.07 0.08 0.09 0.09 0.09 0.09 0.09 0.08 0.07 0.05 0.04 0.02 0.00 0.00 -0.02 -0.03 -0.05 -0.06 -0.07 -0.08 -0.09 -0.09 -0.09 -0.08 -0.07 -0.06 -0.05 -0.03 -0.02 0.00 0.02 0.03 0.05 0.06 0.07 0.08 0.09 0.09 0.09 0.08 0.07 0.06 0.05 0.03 0.02 -0.00 -0.02 -0.03 -0.05 -0.06 -0.07 -0.08 -0.09 -0.09 -0.09 -0.08 -0.07 -0.06 -0.05 -0.03 -0.02 0.00 0.02 0.03 0.05 0.06 0.07 0.08 0.09 0.09 0.09 0.08 0.07 0.06 0.05 0.03 0.02 0.00 0.00 -0.02 -0.03 -0.05 -0.06 -0.07 -0.08 -0.08 -0.08 -0.08 -0.08 -0.07 -0.06 -0.05 -0.03 -0.02 0.00 0.02 0.03 0.05 0.06 0.07 0.08 0.08 0.08 0.08 0.08 0.07 0.06 0.05 0.03 0.02 -0.00 -0.02 -0.03 -0.05 -0.06 -0.07 -0.08 -0.08 -0.08 -0.08 -0.08 -0.07 -0.06 -0.05 -0.03 -0.02 0.00 0.02 0.03 0.05 0.06 0.07 0.08 0.08 0.08 0.08 0.08 0.07 0.06 0.05 0.03 0.02 0.00 0.00 -0.02 -0.03 -0.04 -0.06 -0.06 -0.07 -0.08 -0.08 -0.08 -0.07 -0.06 -0.06 -0.04 -0.03 -0.02 0.00 0.02 0.03 0.04 0.06 0.06 0.07 0.08 0.08 0.08 0.07 0.06 0.06 0.04 0.03 0.02 -0.00 -0.02 -0.03 -0.04 -0.06 -0.06 -0.07 -0.08 -0.08 -0.08 -0.07 -0.06 -0.06 -0.04 -0.03 -0.02 0.00 0.02 0.03 0.04 0.06 0.06 0.07 0.08 0.08 0.08 0.07 0.06 0.06 0.04 0.03 0.02 0.00 0.00 -0.01 -0.03 -0.04 -0.05 -0.06 -0.07 -0.07 -0.07 -0.07 -0.07 -0.06 -0.05 -0.04 -0.03 -0.01 0.00 0.01 0.03 0.04 0.05 0.06 0.07 0.07 0.07 0.07 0.07 0.06 0.05 0.04 0.03 0.01 -0.00 -0.01 -0.03 -0.04 -0.05 -0.06 -0.07 -0.07 -0.07 -0.07 -0.07 -0.06 -0.05 -0.04 -0.03 -0.01 0.00 0.01 0.03 0.04 0.05 0.06 0.07 0.07 0.07 0.07 0.07 0.06 0.05 0.04 0.03 0.01 0.00 0.00 -0.01 -0.02 -0.04 -0.05 -0.05 -0.06 -0.06 -0.06 -0.06 -0.06 -0.05 -0.05 -0.04 -0.02 -0.01 0.00 0.01 0.02 0.04 0.05 0.05 0.06 0.06 0.06 0.06 0.06 0.05 0.05 0.04 0.02 0.01 -0.00 -0.01 -0.02 -0.04 -0.05 -0.05 -0.06 -0.06 -0.06 -0.06 -0.06 -0.05 -0.05 -0.04 -0.02 -0.01 0.00 0.01 0.02 0.04 0.05 0.05 0.06 0.06 0.06 0.06 0.06 0.05 0.05 0.04 0.02 0.01 0.00 0.00 -0.01 -0.02 -0.03 -0.04 -0.05 -0.05 -0.06 -0.06 -0.06 -0.05 -0.05 -0.04 -0.03 -0.02 -0.01 0.00 0.01 0.02 0.03 0.04 0.05 0.05 0.06 0.06 0.06 0.05 0.05 0.04 0.03 0.02 0.01 -0.00 -0.01 -0.02 -0.03 -0.04 -0.05 -0.05 -0.06 -0.06 -0.06 -0.05 -0.05 -0.04 -0.03 -0.02 -0.01 0.00 0.01 0.02 0.03 0.04 0.05 0.05 0.06 0.06 0.06 0.05 0.05 0.04 0.03 0.02 0.01 0.00 0.00 -0.01 -0.02 -0.03 -0.03 -0.04 -0.04 -0.05 -0.05 -0.05 -0.04 -0.04 -0.03 -0.03 -0.02 -0.01 0.00 0.01 0.02 0.03 0.03 0.04 0.04 0.05 0.05 0.05 0.04 0.04 0.03 0.03 0.02 0.01 -0.00 -0.01 -0.02 -0.03 -0.03 -0.04 -0.04 -0.05 -0.05 -0.05 -0.04 -0.04 -0.03 -0.03 -0.02 -0.01 0.00 0.01 0.02 0.03 0.03 0.04 0.04 0.05 0.05 0.05 0.04 0.04 0.03 0.03 0.02 0.01 0.00 0.00 -0.01 -0.01 -0.02 -0.03 -0.03 -0.04 -0.04 -0.04 -0.04 -0.04 -0.03 -0.03 -0.02 -0.01 -0.01 0.00 0.01 0.01 0.02 0.03 0.03 0.04 0.04 0.04 0.04 0.04 0.03 0.03 0.02 0.01 0.01 -0.00 -0.01 -0.01 -0.02 -0.03 -0.03 -0.04 -0.04 -0.04 -0.04 -0.04 -0.03 -0.03 -0.02 -0.01 -0.01 0.00 0.01 0.01 0.02 0.03 0.03 0.04 0.04 0.04 0.04 0.04 0.03 0.03 0.02 0.01 0.01 0.00 0.00 -0.01 -0.01 -0.02 -0.02 -0.02 -0.03 -0.03 -0.03 -0.03 -0.03 -0.02 -0.02 -0.02 -0.01 -0.01 0.00 0.01 0.01 0.02 0.02 0.02 0.03 0.03 0.03 0.03 0.03 0.02 0.02 0.02 0.01 0.01 -0.00 -0.01 -0.01 -0.02 -0.02 -0.02 -0.03 -0.03 -0.03 -0.03 -0.03 -0.02 -0.02 -0.02 -0.01 -0.01 0.00 0.01 0.01 0.02 0.02 0.02 0.03 0.03 0.03 0.03 0.03 0.02 0.02 0.02 0.01 0.01 0.00 0.00 -0.00 -0.01 -0.01 -0.01 -0.02 -0.02 -0.02 -0.02 -0.02 -0.02 -0.02 -0.01 -0.01 -0.01 -0.00 0.00 0.00 0.01 0.01 0.01 0.02 0.02 0.02 0.02 0.02 0.02 0.02 0.01 0.01 0.01 0.00 -0.00 -0.00 -0.01 -0.01 -0.01 -0.02 -0.02 -0.02 -0.02 -0.02 -0.02 -0.02 -0.01 -0.01 -0.01 -0.00 0.00 0.00 0.01 0.01 0.01 0.02 0.02 0.02 0.02 0.02 0.02 0.02 0.01 0.01 0.01 0.00 0.00 0.00 -0.00 -0.00 -0.01 -0.01 -0.01 -0.01 -0.01 -0.01 -0.01 -0.01 -0.01 -0.01 -0.01 -0.00 -0.00 0.00 0.00 0.00 0.01 0.01 0.01 0.01 0.01 0.01 0.01 0.01 0.01 0.01 0.01 0.00 0.00 -0.00 -0.00 -0.00 -0.01 -0.01 -0.01 -0.01 -0.01 -0.01 -0.01 -0.01 -0.01 -0.01 -0.01 -0.00 -0.00 0.00 0.00 0.00 0.01 0.01 0.01 0.01 0.01 0.01 0.01 0.01 0.01 0.01 0.01 0.00 0.00 0.00 0.00 -0.00 -0.00 -0.00 -0.00 0.00 0.00 0.00 0.00 0.00 0.00 0.00 0.00 0.00 0.00 0.00 0.00 0.00 0.00 0.00 0.00 0.00 0.00 0.00 0.00 -0.00 -0.00 -0.00 -0.00 -0.00 -0.00 -0.00 -0.00 -0.00 -0.00 -0.00 -0.00 -0.00 -0.00 -0.00 -0.00 0.00 0.00 0.00 0.00 0.00 0.00 0.00 0.00 0.00 0.00 0.00 0.00 0.00 0.00 0.00 0.00 0.00 0.00 0.00 0.00 0.00 0.00 0.00 0.00 0.00 0.00 0.00 0.01 0.01 0.01 0.01 0.01 0.01 0.01 0.01 0.01 0.01 0.01 0.00 0.00 0.00 -0.00 -0.00 -0.01 -0.01 -0.01 -0.01 -0.01 -0.01 -0.01 -0.01 -0.01 -0.01 -0.01 -0.00 -0.00 -0.00 0.00 0.00 0.01 0.01 0.01 0.01 0.01 0.01 0.01 0.01 0.01 0.01 0.01 0.00 0.00 0.00 -0.00 -0.00 -0.01 -0.01 -0.01 -0.01 -0.01 -0.01 -0.01 -0.01 -0.01 -0.01 -0.01 -0.00 -0.00 0.00 0.00 0.00 0.01 0.01 0.01 0.02 0.02 0.02 0.02 0.02 0.02 0.02 0.01 0.01 0.01 0.00 0.00 -0.00 -0.01 -0.01 -0.01 -0.02 -0.02 -0.02 -0.02 -0.02 -0.02 -0.02 -0.01 -0.01 -0.01 -0.00 -0.00 0.00 0.01 0.01 0.01 0.02 0.02 0.02 0.02 0.02 0.02 0.02 0.01 0.01 0.01 0.00 0.00 -0.00 -0.01 -0.01 -0.01 -0.02 -0.02 -0.02 -0.02 -0.02 -0.02 -0.02 -0.01 -0.01 -0.01 -0.00 0.00 0.00 0.01 0.01 0.02 0.02 0.02 0.03 0.03 0.03 0.03 0.03 0.02 0.02 0.02 0.01 0.01 0.00 -0.01 -0.01 -0.02 -0.02 -0.02 -0.03 -0.03 -0.03 -0.03 -0.03 -0.02 -0.02 -0.02 -0.01 -0.01 -0.00 0.01 0.01 0.02 0.02 0.02 0.03 0.03 0.03 0.03 0.03 0.02 0.02 0.02 0.01 0.01 0.00 -0.01 -0.01 -0.02 -0.02 -0.02 -0.03 -0.03 -0.03 -0.03 -0.03 -0.02 -0.02 -0.02 -0.01 -0.01 0.00 0.00 0.01 0.01 0.02 0.03 0.03 0.04 0.04 0.04 0.04 0.04 0.03 0.03 0.02 0.01 0.01 0.00 -0.01 -0.01 -0.02 -0.03 -0.03 -0.04 -0.04 -0.04 -0.04 -0.04 -0.03 -0.03 -0.02 -0.01 -0.01 -0.00 0.01 0.01 0.02 0.03 0.03 0.04 0.04 0.04 0.04 0.04 0.03 0.03 0.02 0.01 0.01 0.00 -0.01 -0.01 -0.02 -0.03 -0.03 -0.04 -0.04 -0.04 -0.04 -0.04 -0.03 -0.03 -0.02 -0.01 -0.01 0.00 0.00 0.01 0.02 0.03 0.03 0.04 0.04 0.05 0.05 0.05 0.04 0.04 0.03 0.03 0.02 0.01 0.00 -0.01 -0.02 -0.03 -0.03 -0.04 -0.04 -0.05 -0.05 -0.05 -0.04 -0.04 -0.03 -0.03 -0.02 -0.01 -0.00 0.01 0.02 0.03 0.03 0.04 0.04 0.05 0.05 0.05 0.04 0.04 0.03 0.03 0.02 0.01 0.00 -0.01 -0.02 -0.03 -0.03 -0.04 -0.04 -0.05 -0.05 -0.05 -0.04 -0.04 -0.03 -0.03 -0.02 -0.01 0.00 0.00 0.01 0.02 0.03 0.04 0.05 0.05 0.06 0.06 0.06 0.05 0.05 0.04 0.03 0.02 0.01 0.00 -0.01 -0.02 -0.03 -0.04 -0.05 -0.05 -0.06 -0.06 -0.06 -0.05 -0.05 -0.04 -0.03 -0.02 -0.01 -0.00 0.01 0.02 0.03 0.04 0.05 0.05 0.06 0.06 0.06 0.05 0.05 0.04 0.03 0.02 0.01 0.00 -0.01 -0.02 -0.03 -0.04 -0.05 -0.05 -0.06 -0.06 -0.06 -0.05 -0.05 -0.04 -0.03 -0.02 -0.01 0.00 0.00 0.01 0.02 0.04 0.05 0.05 0.06 0.06 0.06 0.06 0.06 0.05 0.05 0.04 0.02 0.01 0.00 -0.01 -0.02 -0.04 -0.05 -0.05 -0.06 -0.06 -0.06 -0.06 -0.06 -0.05 -0.05 -0.04 -0.02 -0.01 -0.00 0.01 0.02 0.04 0.05 0.05 0.06 0.06 0.06 0.06 0.06 0.05 0.05 0.04 0.02 0.01 0.00 -0.01 -0.02 -0.04 -0.05 -0.05 -0.06 -0.06 -0.06 -0.06 -0.06 -0.05 -0.05 -0.04 -0.02 -0.01 0.00 0.00 0.01 0.03 0.04 0.05 0.06 0.07 0.07 0.07 0.07 0.07 0.06 0.05 0.04 0.03 0.01 0.00 -0.01 -0.03 -0.04 -0.05 -0.06 -0.07 -0.07 -0.07 -0.07 -0.07 -0.06 -0.05 -0.04 -0.03 -0.01 -0.00 0.01 0.03 0.04 0.05 0.06 0.07 0.07 0.07 0.07 0.07 0.06 0.05 0.04 0.03 0.01 0.00 -0.01 -0.03 -0.04 -0.05 -0.06 -0.07 -0.07 -0.07 -0.07 -0.07 -0.06 -0.05 -0.04 -0.03 -0.01 0.00 0.00 0.02 0.03 0.04 0.06 0.06 0.07 0.08 0.08 0.08 0.07 0.06 0.06 0.04 0.03 0.02 0.00 -0.02 -0.03 -0.04 -0.06 -0.06 -0.07 -0.08 -0.08 -0.08 -0.07 -0.06 -0.06 -0.04 -0.03 -0.02 -0.00 0.02 0.03 0.04 0.06 0.06 0.07 0.08 0.08 0.08 0.07 0.06 0.06 0.04 0.03 0.02 0.00 -0.02 -0.03 -0.04 -0.06 -0.06 -0.07 -0.08 -0.08 -0.08 -0.07 -0.06 -0.06 -0.04 -0.03 -0.02 0.00 0.00 0.02 0.03 0.05 0.06 0.07 0.08 0.08 0.08 0.08 0.08 0.07 0.06 0.05 0.03 0.02 -0.00 -0.02 -0.03 -0.05 -0.06 -0.07 -0.08 -0.08 -0.08 -0.08 -0.08 -0.07 -0.06 -0.05 -0.03 -0.02 -0.00 0.02 0.03 0.05 0.06 0.07 0.08 0.08 0.08 0.08 0.08 0.07 0.06 0.05 0.03 0.02 0.00 -0.02 -0.03 -0.05 -0.06 -0.07 -0.08 -0.08 -0.08 -0.08 -0.08 -0.07 -0.06 -0.05 -0.03 -0.02 0.00 0.00 0.02 0.03 0.05 0.06 0.07 0.08 0.09 0.09 0.09 0.08 0.07 0.06 0.05 0.03 0.02 -0.00 -0.02 -0.03 -0.05 -0.06 -0.07 -0.08 -0.09 -0.09 -0.09 -0.08 -0.07 -0.06 -0.05 -0.03 -0.02 0.00 0.02 0.03 0.05 0.06 0.07 0.08 0.09 0.09 0.09 0.08 0.07 0.06 0.05 0.03 0.02 0.00 -0.02 -0.03 -0.05 -0.06 -0.07 -0.08 -0.09 -0.09 -0.09 -0.08 -0.07 -0.06 -0.05 -0.03 -0.02 0.00 0.00 0.02 0.04 0.05 0.07 0.08 0.09 0.09 0.09 0.09 0.09 0.08 0.07 0.05 0.04 0.02 -0.00 -0.02 -0.04 -0.05 -0.07 -0.08 -0.09 -0.09 -0.09 -0.09 -0.09 -0.08 -0.07 -0.05 -0.04 -0.02 -0.00 0.02 0.04 0.05 0.07 0.08 0.09 0.09 0.09 0.09 0.09 0.08 0.07 0.05 0.04 0.02 0.00 -0.02 -0.04 -0.05 -0.07 -0.08 -0.09 -0.09 -0.09 -0.09 -0.09 -0.08 -0.07 -0.05 -0.04 -0.02 0.00 0.00 0.02 0.04 0.05 0.07 0.08 0.09 0.09 0.10 0.09 0.09 0.08 0.07 0.05 0.04 0.02 -0.00 -0.02 -0.04 -0.05 -0.07 -0.08 -0.09 -0.09 -0.10 -0.09 -0.09 -0.08 -0.07 -0.05 -0.04 -0.02 -0.00 0.02 0.04 0.05 0.07 0.08 0.09 0.09 0.10 0.09 0.09 0.08 0.07 0.05 0.04 0.02 0.00 -0.02 -0.04 -0.05 -0.07 -0.08 -0.09 -0.09 -0.10 -0.09 -0.09 -0.08 -0.07 -0.05 -0.04 -0.02 0.00 0.00 0.02 0.04 0.06 0.07 0.08 0.09 0.10 0.10 0.10 0.09 0.08 0.07 0.06 0.04 0.02 -0.00 -0.02 -0.04 -0.06 -0.07 -0.08 -0.09 -0.10 -0.10 -0.10 -0.09 -0.08 -0.07 -0.06 -0.04 -0.02 -0.00 0.02 0.04 0.06 0.07 0.08 0.09 0.10 0.10 0.10 0.09 0.08 0.07 0.06 0.04 0.02 0.00 -0.02 -0.04 -0.06 -0.07 -0.08 -0.09 -0.10 -0.10 -0.10 -0.09 -0.08 -0.07 -0.06 -0.04 -0.02 0.00 0.00 0.02 0.04 0.06 0.07 0.08 0.09 0.10 0.10 0.10 0.09 0.08 0.07 0.06 0.04 0.02 -0.00 -0.02 -0.04 -0.06 -0.07 -0.08 -0.09 -0.10 -0.10 -0.10 -0.09 -0.08 -0.07 -0.06 -0.04 -0.02 0.00 0.02 0.04 0.06 0.07 0.08 0.09 0.10 0.10 0.10 0.09 0.08 0.07 0.06 0.04 0.02 -0.00 -0.02 -0.04 -0.06 -0.07 -0.08 -0.09 -0.10 -0.10 -0.10 -0.09 -0.08 -0.07 -0.06 -0.04 -0.02 0.00 0.00 0.02 0.04 0.06 0.07 0.08 0.09 0.10 0.10 0.10 0.09 0.08 0.07 0.06 0.04 0.02 -0.00 -0.02 -0.04 -0.06 -0.07 -0.08 -0.09 -0.10 -0.10 -0.10 -0.09 -0.08 -0.07 -0.06 -0.04 -0.02 -0.00 0.02 0.04 0.06 0.07 0.08 0.09 0.10 0.10 0.10 0.09 0.08 0.07 0.06 0.04 0.02 0.00 -0.02 -0.04 -0.06 -0.07 -0.08 -0.09 -0.10 -0.10 -0.10 -0.09 -0.08 -0.07 -0.06 -0.04 -0.02 0.00 0.00 0.02 0.04 0.06 0.07 0.08 0.09 0.10 0.10 0.10 0.09 0.08 0.07 0.06 0.04 0.02 -0.00 -0.02 -0.04 -0.06 -0.07 -0.08 -0.09 -0.10 -0.10 -0.10 -0.09 -0.08 -0.07 -0.06 -0.04 -0.02 -0.00 0.02 0.04 0.06 0.07 0.08 0.09 0.10 0.10 0.10 0.09 0.08 0.07 0.06 0.04 0.02 0.00 -0.02 -0.04 -0.06 -0.07 -0.08 -0.09 -0.10 -0.10 -0.10 -0.09 -0.08 -0.07 -0.06 -0.04 -0.02 0.00 0.00 0.02 0.04 0.06 0.07 0.08 0.09 0.10 0.10 0.10 0.09 0.08 0.07 0.06 0.04 0.02 -0.00 -0.02 -0.04 -0.06 -0.07 -0.08 -0.09 -0.10 -0.10 -0.10 -0.09 -0.08 -0.07 -0.06 -0.04 -0.02 -0.00 0.02 0.04 0.06 0.07 0.08 0.09 0.10 0.10 0.10 0.09 0.08 0.07 0.06 0.04 0.02 0.00 -0.02 -0.04 -0.06 -0.07 -0.08 -0.09 -0.10 -0.10 -0.10 -0.09 -0.08 -0.07 -0.06 -0.04 -0.02 0.00 0.00 0.02 0.04 0.05 0.07 0.08 0.09 0.09 0.10 0.09 0.09 0.08 0.07 0.05 0.04 0.02 -0.00 -0.02 -0.04 -0.05 -0.07 -0.08 -0.09 -0.09 -0.10 -0.09 -0.09 -0.08 -0.07 -0.05 -0.04 -0.02 0.00 0.02 0.04 0.05 0.07 0.08 0.09 0.09 0.10 0.09 0.09 0.08 0.07 0.05 0.04 0.02 -0.00 -0.02 -0.04 -0.05 -0.07 -0.08 -0.09 -0.09 -0.10 -0.09 -0.09 -0.08 -0.07 -0.05 -0.04 -0.02 0.00 0.00 0.02 0.04 0.05 0.07 0.08 0.09 0.09 0.09 0.09 0.09 0.08 0.07 0.05 0.04 0.02 -0.00 -0.02 -0.04 -0.05 -0.07 -0.08 -0.09 -0.09 -0.09 -0.09 -0.09 -0.08 -0.07 -0.05 -0.04 -0.02 0.00 0.02 0.04 0.05 0.07 0.08 0.09 0.09 0.09 0.09 0.09 0.08 0.07 0.05 0.04 0.02 -0.00 -0.02 -0.04 -0.05 -0.07 -0.08 -0.09 -0.09 -0.09 -0.09 -0.09 -0.08 -0.07 -0.05 -0.04 -0.02 0.00 0.00 0.02 0.03 0.05 0.06 0.07 0.08 0.09 0.09 0.09 0.08 0.07 0.06 0.05 0.03 0.02 -0.00 -0.02 -0.03 -0.05 -0.06 -0.07 -0.08 -0.09 -0.09 -0.09 -0.08 -0.07 -0.06 -0.05 -0.03 -0.02 0.00 0.02 0.03 0.05 0.06 0.07 0.08 0.09 0.09 0.09 0.08 0.07 0.06 0.05 0.03 0.02 -0.00 -0.02 -0.03 -0.05 -0.06 -0.07 -0.08 -0.09 -0.09 -0.09 -0.08 -0.07 -0.06 -0.05 -0.03 -0.02 0.00 0.00 0.02 0.03 0.05 0.06 0.07 0.08 0.08 0.08 0.08 0.08 0.07 0.06 0.05 0.03 0.02 -0.00 -0.02 -0.03 -0.05 -0.06 -0.07 -0.08 -0.08 -0.08 -0.08 -0.08 -0.07 -0.06 -0.05 -0.03 -0.02 0.00 0.02 0.03 0.05 0.06 0.07 0.08 0.08 0.08 0.08 0.08 0.07 0.06 0.05 0.03 0.02 -0.00 -0.02 -0.03 -0.05 -0.06 -0.07 -0.08 -0.08 -0.08 -0.08 -0.08 -0.07 -0.06 -0.05 -0.03 -0.02 0.00 0.00 0.02 0.03 0.04 0.06 0.06 0.07 0.08 0.08 0.08 0.07 0.06 0.06 0.04 0.03 0.02 -0.00 -0.02 -0.03 -0.04 -0.06 -0.06 -0.07 -0.08 -0.08 -0.08 -0.07 -0.06 -0.06 -0.04 -0.03 -0.02 0.00 0.02 0.03 0.04 0.06 0.06 0.07 0.08 0.08 0.08 0.07 0.06 0.06 0.04 0.03 0.02 -0.00 -0.02 -0.03 -0.04 -0.06 -0.06 -0.07 -0.08 -0.08 -0.08 -0.07 -0.06 -0.06 -0.04 -0.03 -0.02 0.00 0.00 0.01 0.03 0.04 0.05 0.06 0.07 0.07 0.07 0.07 0.07 0.06 0.05 0.04 0.03 0.01 -0.00 -0.01 -0.03 -0.04 -0.05 -0.06 -0.07 -0.07 -0.07 -0.07 -0.07 -0.06 -0.05 -0.04 -0.03 -0.01 0.00 0.01 0.03 0.04 0.05 0.06 0.07 0.07 0.07 0.07 0.07 0.06 0.05 0.04 0.03 0.01 -0.00 -0.01 -0.03 -0.04 -0.05 -0.06 -0.07 -0.07 -0.07 -0.07 -0.07 -0.06 -0.05 -0.04 -0.03 -0.01 0.00 0.00 0.01 0.02 0.04 0.05 0.05 0.06 0.06 0.06 0.06 0.06 0.05 0.05 0.04 0.02 0.01 -0.00 -0.01 -0.02 -0.04 -0.05 -0.05 -0.06 -0.06 -0.06 -0.06 -0.06 -0.05 -0.05 -0.04 -0.02 -0.01 0.00 0.01 0.02 0.04 0.05 0.05 0.06 0.06 0.06 0.06 0.06 0.05 0.05 0.04 0.02 0.01 -0.00 -0.01 -0.02 -0.04 -0.05 -0.05 -0.06 -0.06 -0.06 -0.06 -0.06 -0.05 -0.05 -0.04 -0.02 -0.01 0.00 0.00 0.01 0.02 0.03 0.04 0.05 0.05 0.06 0.06 0.06 0.05 0.05 0.04 0.03 0.02 0.01 -0.00 -0.01 -0.02 -0.03 -0.04 -0.05 -0.05 -0.06 -0.06 -0.06 -0.05 -0.05 -0.04 -0.03 -0.02 -0.01 0.00 0.01 0.02 0.03 0.04 0.05 0.05 0.06 0.06 0.06 0.05 0.05 0.04 0.03 0.02 0.01 -0.00 -0.01 -0.02 -0.03 -0.04 -0.05 -0.05 -0.06 -0.06 -0.06 -0.05 -0.05 -0.04 -0.03 -0.02 -0.01 0.00 0.00 0.01 0.02 0.03 0.03 0.04 0.04 0.05 0.05 0.05 0.04 0.04 0.03 0.03 0.02 0.01 -0.00 -0.01 -0.02 -0.03 -0.03 -0.04 -0.04 -0.05 -0.05 -0.05 -0.04 -0.04 -0.03 -0.03 -0.02 -0.01 0.00 0.01 0.02 0.03 0.03 0.04 0.04 0.05 0.05 0.05 0.04 0.04 0.03 0.03 0.02 0.01 -0.00 -0.01 -0.02 -0.03 -0.03 -0.04 -0.04 -0.05 -0.05 -0.05 -0.04 -0.04 -0.03 -0.03 -0.02 -0.01 0.00 0.00 0.01 0.01 0.02 0.03 0.03 0.04 0.04 0.04 0.04 0.04 0.03 0.03 0.02 0.01 0.01 -0.00 -0.01 -0.01 -0.02 -0.03 -0.03 -0.04 -0.04 -0.04 -0.04 -0.04 -0.03 -0.03 -0.02 -0.01 -0.01 0.00 0.01 0.01 0.02 0.03 0.03 0.04 0.04 0.04 0.04 0.04 0.03 0.03 0.02 0.01 0.01 -0.00 -0.01 -0.01 -0.02 -0.03 -0.03 -0.04 -0.04 -0.04 -0.04 -0.04 -0.03 -0.03 -0.02 -0.01 -0.01 0.00 0.00 0.01 0.01 0.02 0.02 0.02 0.03 0.03 0.03 0.03 0.03 0.02 0.02 0.02 0.01 0.01 -0.00 -0.01 -0.01 -0.02 -0.02 -0.02 -0.03 -0.03 -0.03 -0.03 -0.03 -0.02 -0.02 -0.02 -0.01 -0.01 0.00 0.01 0.01 0.02 0.02 0.02 0.03 0.03 0.03 0.03 0.03 0.02 0.02 0.02 0.01 0.01 -0.00 -0.01 -0.01 -0.02 -0.02 -0.02 -0.03 -0.03 -0.03 -0.03 -0.03 -0.02 -0.02 -0.02 -0.01 -0.01 0.00 0.00 0.00 0.01 0.01 0.01 0.02 0.02 0.02 0.02 0.02 0.02 0.02 0.01 0.01 0.01 0.00 -0.00 -0.00 -0.01 -0.01 -0.01 -0.02 -0.02 -0.02 -0.02 -0.02 -0.02 -0.02 -0.01 -0.01 -0.01 -0.00 0.00 0.00 0.01 0.01 0.01 0.02 0.02 0.02 0.02 0.02 0.02 0.02 0.01 0.01 0.01 0.00 -0.00 -0.00 -0.01 -0.01 -0.01 -0.02 -0.02 -0.02 -0.02 -0.02 -0.02 -0.02 -0.01 -0.01 -0.01 -0.00 0.00 0.00 0.00 0.00 0.01 0.01 0.01 0.01 0.01 0.01 0.01 0.01 0.01 0.01 0.01 0.00 0.00 -0.00 -0.00 -0.00 -0.01 -0.01 -0.01 -0.01 -0.01 -0.01 -0.01 -0.01 -0.01 -0.01 -0.01 -0.00 -0.00 0.00 0.00 0.00 0.01 0.01 0.01 0.01 0.01 0.01 0.01 0.01 0.01 0.01 0.01 0.00 0.00 -0.00 -0.00 -0.00 -0.01 -0.01 -0.01 -0.01 -0.01 -0.01 -0.01 -0.01 -0.01 -0.01 -0.01 -0.00 -0.00 0.00 0.00 0.00 0.00 0.00 0.00 0.00 0.00 0.00 0.00 0.00 0.00 0.00 0.00 0.00 0.00 0.00 0.00 0.00 0.00 0.00 0.00 0.00 0.00 0.00 0.00 0.00 0.00 0.00 0.00 0.00 0.00 0.00 0.00 0.00 0.00 0.00 0.00 0.00 0.00 0.00 0.00 0.00 0.00 0.00 0.00 0.00 0.00 0.00 0.00 0.00 0.00 0.00 0.00 0.00 0.00 0.00 0.00 0.00 0.00 0.00 0.00 0.00 0.00 0.00 0.00 