<?xml version="1.0"?>
<VTKFile type="UnstructuredGrid"  version="0.1"  >
<UnstructuredGrid>
<Piece  NumberOfPoints="1089" NumberOfCells="2048">
<Points>
<DataArray  type="Float64"  NumberOfComponents="3"  format="ascii">0 0 0  0.03125 0 0  0.0625 0 0  0.09375 0 0  0.125 0 0  0.15625 0 0  0.1875 0 0  0.21875 0 0  0.25 0 0  0.28125 0 0  0.3125 0 0  0.34375 0 0  0.375 0 0  0.40625 0 0  0.4375 0 0  0.46875 0 0  0.5 0 0  0.53125 0 0  0.5625 0 0  0.59375 0 0  0.625 0 0  0.65625 0 0  0.6875 0 0  0.71875 0 0  0.75 0 0  0.78125 0 0  0.8125 0 0  0.84375 0 0  0.875 0 0  0.90625 0 0  0.9375 0 0  0.96875 0 0  1 0 0  0 0.03125 0  0.03125 0.03125 0  0.0625 0.03125 0  0.09375 0.03125 0  0.125 0.03125 0  0.15625 0.03125 0  0.1875 0.03125 0  0.21875 0.03125 0  0.25 0.03125 0  0.28125 0.03125 0  0.3125 0.03125 0  0.34375 0.03125 0  0.375 0.03125 0  0.40625 0.03125 0  0.4375 0.03125 0  0.46875 0.03125 0  0.5 0.03125 0  0.53125 0.03125 0  0.5625 0.03125 0  0.59375 0.03125 0  0.625 0.03125 0  0.65625 0.03125 0  0.6875 0.03125 0  0.71875 0.03125 0  0.75 0.03125 0  0.78125 0.03125 0  0.8125 0.03125 0  0.84375 0.03125 0  0.875 0.03125 0  0.90625 0.03125 0  0.9375 0.03125 0  0.96875 0.03125 0  1 0.03125 0  0 0.0625 0  0.03125 0.0625 0  0.0625 0.0625 0  0.09375 0.0625 0  0.125 0.0625 0  0.15625 0.0625 0  0.1875 0.0625 0  0.21875 0.0625 0  0.25 0.0625 0  0.28125 0.0625 0  0.3125 0.0625 0  0.34375 0.0625 0  0.375 0.0625 0  0.40625 0.0625 0  0.4375 0.0625 0  0.46875 0.0625 0  0.5 0.0625 0  0.53125 0.0625 0  0.5625 0.0625 0  0.59375 0.0625 0  0.625 0.0625 0  0.65625 0.0625 0  0.6875 0.0625 0  0.71875 0.0625 0  0.75 0.0625 0  0.78125 0.0625 0  0.8125 0.0625 0  0.84375 0.0625 0  0.875 0.0625 0  0.90625 0.0625 0  0.9375 0.0625 0  0.96875 0.0625 0  1 0.0625 0  0 0.09375 0  0.03125 0.09375 0  0.0625 0.09375 0  0.09375 0.09375 0  0.125 0.09375 0  0.15625 0.09375 0  0.1875 0.09375 0  0.21875 0.09375 0  0.25 0.09375 0  0.28125 0.09375 0  0.3125 0.09375 0  0.34375 0.09375 0  0.375 0.09375 0  0.40625 0.09375 0  0.4375 0.09375 0  0.46875 0.09375 0  0.5 0.09375 0  0.53125 0.09375 0  0.5625 0.09375 0  0.59375 0.09375 0  0.625 0.09375 0  0.65625 0.09375 0  0.6875 0.09375 0  0.71875 0.09375 0  0.75 0.09375 0  0.78125 0.09375 0  0.8125 0.09375 0  0.84375 0.09375 0  0.875 0.09375 0  0.90625 0.09375 0  0.9375 0.09375 0  0.96875 0.09375 0  1 0.09375 0  0 0.125 0  0.03125 0.125 0  0.0625 0.125 0  0.09375 0.125 0  0.125 0.125 0  0.15625 0.125 0  0.1875 0.125 0  0.21875 0.125 0  0.25 0.125 0  0.28125 0.125 0  0.3125 0.125 0  0.34375 0.125 0  0.375 0.125 0  0.40625 0.125 0  0.4375 0.125 0  0.46875 0.125 0  0.5 0.125 0  0.53125 0.125 0  0.5625 0.125 0  0.59375 0.125 0  0.625 0.125 0  0.65625 0.125 0  0.6875 0.125 0  0.71875 0.125 0  0.75 0.125 0  0.78125 0.125 0  0.8125 0.125 0  0.84375 0.125 0  0.875 0.125 0  0.90625 0.125 0  0.9375 0.125 0  0.96875 0.125 0  1 0.125 0  0 0.15625 0  0.03125 0.15625 0  0.0625 0.15625 0  0.09375 0.15625 0  0.125 0.15625 0  0.15625 0.15625 0  0.1875 0.15625 0  0.21875 0.15625 0  0.25 0.15625 0  0.28125 0.15625 0  0.3125 0.15625 0  0.34375 0.15625 0  0.375 0.15625 0  0.40625 0.15625 0  0.4375 0.15625 0  0.46875 0.15625 0  0.5 0.15625 0  0.53125 0.15625 0  0.5625 0.15625 0  0.59375 0.15625 0  0.625 0.15625 0  0.65625 0.15625 0  0.6875 0.15625 0  0.71875 0.15625 0  0.75 0.15625 0  0.78125 0.15625 0  0.8125 0.15625 0  0.84375 0.15625 0  0.875 0.15625 0  0.90625 0.15625 0  0.9375 0.15625 0  0.96875 0.15625 0  1 0.15625 0  0 0.1875 0  0.03125 0.1875 0  0.0625 0.1875 0  0.09375 0.1875 0  0.125 0.1875 0  0.15625 0.1875 0  0.1875 0.1875 0  0.21875 0.1875 0  0.25 0.1875 0  0.28125 0.1875 0  0.3125 0.1875 0  0.34375 0.1875 0  0.375 0.1875 0  0.40625 0.1875 0  0.4375 0.1875 0  0.46875 0.1875 0  0.5 0.1875 0  0.53125 0.1875 0  0.5625 0.1875 0  0.59375 0.1875 0  0.625 0.1875 0  0.65625 0.1875 0  0.6875 0.1875 0  0.71875 0.1875 0  0.75 0.1875 0  0.78125 0.1875 0  0.8125 0.1875 0  0.84375 0.1875 0  0.875 0.1875 0  0.90625 0.1875 0  0.9375 0.1875 0  0.96875 0.1875 0  1 0.1875 0  0 0.21875 0  0.03125 0.21875 0  0.0625 0.21875 0  0.09375 0.21875 0  0.125 0.21875 0  0.15625 0.21875 0  0.1875 0.21875 0  0.21875 0.21875 0  0.25 0.21875 0  0.28125 0.21875 0  0.3125 0.21875 0  0.34375 0.21875 0  0.375 0.21875 0  0.40625 0.21875 0  0.4375 0.21875 0  0.46875 0.21875 0  0.5 0.21875 0  0.53125 0.21875 0  0.5625 0.21875 0  0.59375 0.21875 0  0.625 0.21875 0  0.65625 0.21875 0  0.6875 0.21875 0  0.71875 0.21875 0  0.75 0.21875 0  0.78125 0.21875 0  0.8125 0.21875 0  0.84375 0.21875 0  0.875 0.21875 0  0.90625 0.21875 0  0.9375 0.21875 0  0.96875 0.21875 0  1 0.21875 0  0 0.25 0  0.03125 0.25 0  0.0625 0.25 0  0.09375 0.25 0  0.125 0.25 0  0.15625 0.25 0  0.1875 0.25 0  0.21875 0.25 0  0.25 0.25 0  0.28125 0.25 0  0.3125 0.25 0  0.34375 0.25 0  0.375 0.25 0  0.40625 0.25 0  0.4375 0.25 0  0.46875 0.25 0  0.5 0.25 0  0.53125 0.25 0  0.5625 0.25 0  0.59375 0.25 0  0.625 0.25 0  0.65625 0.25 0  0.6875 0.25 0  0.71875 0.25 0  0.75 0.25 0  0.78125 0.25 0  0.8125 0.25 0  0.84375 0.25 0  0.875 0.25 0  0.90625 0.25 0  0.9375 0.25 0  0.96875 0.25 0  1 0.25 0  0 0.28125 0  0.03125 0.28125 0  0.0625 0.28125 0  0.09375 0.28125 0  0.125 0.28125 0  0.15625 0.28125 0  0.1875 0.28125 0  0.21875 0.28125 0  0.25 0.28125 0  0.28125 0.28125 0  0.3125 0.28125 0  0.34375 0.28125 0  0.375 0.28125 0  0.40625 0.28125 0  0.4375 0.28125 0  0.46875 0.28125 0  0.5 0.28125 0  0.53125 0.28125 0  0.5625 0.28125 0  0.59375 0.28125 0  0.625 0.28125 0  0.65625 0.28125 0  0.6875 0.28125 0  0.71875 0.28125 0  0.75 0.28125 0  0.78125 0.28125 0  0.8125 0.28125 0  0.84375 0.28125 0  0.875 0.28125 0  0.90625 0.28125 0  0.9375 0.28125 0  0.96875 0.28125 0  1 0.28125 0  0 0.3125 0  0.03125 0.3125 0  0.0625 0.3125 0  0.09375 0.3125 0  0.125 0.3125 0  0.15625 0.3125 0  0.1875 0.3125 0  0.21875 0.3125 0  0.25 0.3125 0  0.28125 0.3125 0  0.3125 0.3125 0  0.34375 0.3125 0  0.375 0.3125 0  0.40625 0.3125 0  0.4375 0.3125 0  0.46875 0.3125 0  0.5 0.3125 0  0.53125 0.3125 0  0.5625 0.3125 0  0.59375 0.3125 0  0.625 0.3125 0  0.65625 0.3125 0  0.6875 0.3125 0  0.71875 0.3125 0  0.75 0.3125 0  0.78125 0.3125 0  0.8125 0.3125 0  0.84375 0.3125 0  0.875 0.3125 0  0.90625 0.3125 0  0.9375 0.3125 0  0.96875 0.3125 0  1 0.3125 0  0 0.34375 0  0.03125 0.34375 0  0.0625 0.34375 0  0.09375 0.34375 0  0.125 0.34375 0  0.15625 0.34375 0  0.1875 0.34375 0  0.21875 0.34375 0  0.25 0.34375 0  0.28125 0.34375 0  0.3125 0.34375 0  0.34375 0.34375 0  0.375 0.34375 0  0.40625 0.34375 0  0.4375 0.34375 0  0.46875 0.34375 0  0.5 0.34375 0  0.53125 0.34375 0  0.5625 0.34375 0  0.59375 0.34375 0  0.625 0.34375 0  0.65625 0.34375 0  0.6875 0.34375 0  0.71875 0.34375 0  0.75 0.34375 0  0.78125 0.34375 0  0.8125 0.34375 0  0.84375 0.34375 0  0.875 0.34375 0  0.90625 0.34375 0  0.9375 0.34375 0  0.96875 0.34375 0  1 0.34375 0  0 0.375 0  0.03125 0.375 0  0.0625 0.375 0  0.09375 0.375 0  0.125 0.375 0  0.15625 0.375 0  0.1875 0.375 0  0.21875 0.375 0  0.25 0.375 0  0.28125 0.375 0  0.3125 0.375 0  0.34375 0.375 0  0.375 0.375 0  0.40625 0.375 0  0.4375 0.375 0  0.46875 0.375 0  0.5 0.375 0  0.53125 0.375 0  0.5625 0.375 0  0.59375 0.375 0  0.625 0.375 0  0.65625 0.375 0  0.6875 0.375 0  0.71875 0.375 0  0.75 0.375 0  0.78125 0.375 0  0.8125 0.375 0  0.84375 0.375 0  0.875 0.375 0  0.90625 0.375 0  0.9375 0.375 0  0.96875 0.375 0  1 0.375 0  0 0.40625 0  0.03125 0.40625 0  0.0625 0.40625 0  0.09375 0.40625 0  0.125 0.40625 0  0.15625 0.40625 0  0.1875 0.40625 0  0.21875 0.40625 0  0.25 0.40625 0  0.28125 0.40625 0  0.3125 0.40625 0  0.34375 0.40625 0  0.375 0.40625 0  0.40625 0.40625 0  0.4375 0.40625 0  0.46875 0.40625 0  0.5 0.40625 0  0.53125 0.40625 0  0.5625 0.40625 0  0.59375 0.40625 0  0.625 0.40625 0  0.65625 0.40625 0  0.6875 0.40625 0  0.71875 0.40625 0  0.75 0.40625 0  0.78125 0.40625 0  0.8125 0.40625 0  0.84375 0.40625 0  0.875 0.40625 0  0.90625 0.40625 0  0.9375 0.40625 0  0.96875 0.40625 0  1 0.40625 0  0 0.4375 0  0.03125 0.4375 0  0.0625 0.4375 0  0.09375 0.4375 0  0.125 0.4375 0  0.15625 0.4375 0  0.1875 0.4375 0  0.21875 0.4375 0  0.25 0.4375 0  0.28125 0.4375 0  0.3125 0.4375 0  0.34375 0.4375 0  0.375 0.4375 0  0.40625 0.4375 0  0.4375 0.4375 0  0.46875 0.4375 0  0.5 0.4375 0  0.53125 0.4375 0  0.5625 0.4375 0  0.59375 0.4375 0  0.625 0.4375 0  0.65625 0.4375 0  0.6875 0.4375 0  0.71875 0.4375 0  0.75 0.4375 0  0.78125 0.4375 0  0.8125 0.4375 0  0.84375 0.4375 0  0.875 0.4375 0  0.90625 0.4375 0  0.9375 0.4375 0  0.96875 0.4375 0  1 0.4375 0  0 0.46875 0  0.03125 0.46875 0  0.0625 0.46875 0  0.09375 0.46875 0  0.125 0.46875 0  0.15625 0.46875 0  0.1875 0.46875 0  0.21875 0.46875 0  0.25 0.46875 0  0.28125 0.46875 0  0.3125 0.46875 0  0.34375 0.46875 0  0.375 0.46875 0  0.40625 0.46875 0  0.4375 0.46875 0  0.46875 0.46875 0  0.5 0.46875 0  0.53125 0.46875 0  0.5625 0.46875 0  0.59375 0.46875 0  0.625 0.46875 0  0.65625 0.46875 0  0.6875 0.46875 0  0.71875 0.46875 0  0.75 0.46875 0  0.78125 0.46875 0  0.8125 0.46875 0  0.84375 0.46875 0  0.875 0.46875 0  0.90625 0.46875 0  0.9375 0.46875 0  0.96875 0.46875 0  1 0.46875 0  0 0.5 0  0.03125 0.5 0  0.0625 0.5 0  0.09375 0.5 0  0.125 0.5 0  0.15625 0.5 0  0.1875 0.5 0  0.21875 0.5 0  0.25 0.5 0  0.28125 0.5 0  0.3125 0.5 0  0.34375 0.5 0  0.375 0.5 0  0.40625 0.5 0  0.4375 0.5 0  0.46875 0.5 0  0.5 0.5 0  0.53125 0.5 0  0.5625 0.5 0  0.59375 0.5 0  0.625 0.5 0  0.65625 0.5 0  0.6875 0.5 0  0.71875 0.5 0  0.75 0.5 0  0.78125 0.5 0  0.8125 0.5 0  0.84375 0.5 0  0.875 0.5 0  0.90625 0.5 0  0.9375 0.5 0  0.96875 0.5 0  1 0.5 0  0 0.53125 0  0.03125 0.53125 0  0.0625 0.53125 0  0.09375 0.53125 0  0.125 0.53125 0  0.15625 0.53125 0  0.1875 0.53125 0  0.21875 0.53125 0  0.25 0.53125 0  0.28125 0.53125 0  0.3125 0.53125 0  0.34375 0.53125 0  0.375 0.53125 0  0.40625 0.53125 0  0.4375 0.53125 0  0.46875 0.53125 0  0.5 0.53125 0  0.53125 0.53125 0  0.5625 0.53125 0  0.59375 0.53125 0  0.625 0.53125 0  0.65625 0.53125 0  0.6875 0.53125 0  0.71875 0.53125 0  0.75 0.53125 0  0.78125 0.531
[...]
<PointData  Scalars="f_8"> 
<DataArray  type="Float64"  Name="f_8"  format="ascii">0.0000000000000000e+00  0.0000000000000000e+00  0.0000000000000000e+00  0.0000000000000000e+00  0.0000000000000000e+00  0.0000000000000000e+00  0.0000000000000000e+00  0.0000000000000000e+00  0.0000000000000000e+00  0.0000000000000000e+00  0.0000000000000000e+00  0.0000000000000000e+00  0.0000000000000000e+00  0.0000000000000000e+00  0.0000000000000000e+00  0.0000000000000000e+00  0.0000000000000000e+00  0.0000000000000000e+00  0.0000000000000000e+00  0.0000000000000000e+00  0.0000000000000000e+00  0.0000000000000000e+00  0.0000000000000000e+00  0.0000000000000000e+00  0.0000000000000000e+00  0.0000000000000000e+00  0.0000000000000000e+00  0.0000000000000000e+00  0.0000000000000000e+00  0.0000000000000000e+00  0.0000000000000000e+00  0.0000000000000000e+00  0.0000000000000000e+00  8.1830313068128897e-04  8.2112653467432298e-04  8.2939316582490968e-04  8.4293642868506669e-04  8.6146764674190177e-04  8.8456105069968053e-04  9.1163563605386729e-04  9.4193711950849783e-04  9.7452460428844659e-04  1.0082679275792027e-03  1.0418625579431530e-03  1.0738686472463214e-03  1.1027786398859292e-03  1.1271131940062762e-03  1.1455383624220596e-03  1.1569895073262019e-03  1.1607818550458898e-03  1.1566866691014471e-03  1.1449571847848726e-03  1.1262987548998837e-03  1.1017898269531843e-03  1.0727702507541709e-03  1.0407179548259278e-03  1.0071335824463823e-03  9.7344688969228316e-04  9.4095131607405450e-04  9.1076658409514728e-04  8.8382480492370219e-04  8.6087355418687939e-04  8.4248920422501676e-04  8.2909470090161371e-04  8.2097730218419582e-04  8.1830313068128897e-04  1.6311086857393750e-03  1.6368098417499579e-03  1.6535096981709874e-03  1.6808848957324957e-03  1.7183730862980813e-03  1.7651408561518292e-03  1.8200442001193250e-03  1.8815878077667731e-03  1.9478924049979162e-03  2.0166825811704474e-03  2.0853100170037933e-03  2.1508272746417387e-03  2.2101233850649227e-03  2.2601228408373805e-03  2.2980344737422048e-03  2.3216192126734123e-03  2.3294319393016294e-03  2.3209894389015729e-03  2.2968277346929358e-03  2.2584358918559060e-03  2.2080817443408886e-03  2.1485677309222694e-03  2.0829647867130091e-03  2.0143677918031803e-03  1.9457018460599343e-03  1.8795914349478071e-03  1.8182900743433303e-03  1.7636590305967099e-03  1.7171801909689110e-03  1.6799885568684913e-03  1.6529122958627450e-03  1.6365113768266621e-03  1.6311086857393750e-03  2.4328103931854478e-03  2.4414944466458846e-03  2.4669508822798762e-03  2.5087203439365276e-03  2.5659988611608704e-03  2.6375848312262988e-03  2.7218118024166264e-03  2.8164757799164671e-03  2.9187707497754568e-03  3.0252520702219042e-03  3.1318530192500950e-03  3.2339824452235749e-03  3.3267272225920418e-03  3.4051682333505907e-03  3.4647919086607756e-03  3.5019459500246421e-03  3.5142593789546711e-03  3.5009379584283852e-03  3.4628654917846784e-03  3.4024863619675385e-03  3.3234989136883245e-03  3.2304319192272479e-03  3.1281927099820134e-03  3.0216640874424685e-03  2.9153979649656730e-03  2.8134210598581510e-03  2.7191426747258545e-03  2.6353408455402506e-03  2.5641995545571065e-03  2.5073725162886437e-03  2.4660545434158718e-03  2.4410472221858348e-03  2.4328103931854478e-03  3.2175912162846956e-03  3.2294066629272975e-03  3.2640790145267839e-03  3.3210466424729223e-03  3.3993168720859255e-03  3.4973868714514422e-03  3.6131398540407722e-03  3.7437264647015465e-03  3.8854486026899185e-03  4.0336730853789580e-03  4.1828141159002226e-03  4.3264323968581321e-03  4.4574975559645820e-03  4.5688405400554346e-03  4.6537790777543362e-03  4.7068388044863210e-03  4.7244364065271351e-03  4.7053682678542680e-03  4.6509790714531511e-03  4.5649653915194842e-03  4.4528684817246589e-03  4.3213866324145209e-03  4.1776623732063369e-03  4.0286726115318855e-03  3.8807926980956929e-03  3.7395468427036619e-03  3.6095166048336408e-03  3.4943613593267065e-03  3.3969044153650020e-03  3.3192473358691576e-03  3.2628861191976145e-03  3.2288125703722756e-03  3.2175912162846956e-03  3.9793352323718480e-03  3.9944619529670503e-03  4.0389117850218158e-03  4.1120700282458039e-03  4.2128340844816668e-03  4.3395028397133027e-03  4.4896258579278691e-03  4.6598207829723305e-03  4.8455772772982670e-03  5.0410819779006851e-03  5.2391208469535931e-03  5.4311374050643700e-03  5.6075345244829319e-03  5.7582850038392008e-03  5.8738479927239124e-03  5.9462811990423532e-03  5.9703301763440256e-03  5.9442232776486048e-03  5.8699481299950406e-03  5.7529283897840107e-03  5.6011988111264194e-03  5.4243110276632435e-03  5.2322382586505265e-03  5.0344867894295993e-03  4.8395126556833373e-03  4.6544391857300006e-03  4.4850084567708750e-03  4.3356810126768544e-03  4.2098085723569281e-03  4.1098260425597513e-03  4.0374299594666940e-03  3.9937257071910714e-03  3.9793352323718480e-03  4.7115620340445561e-03  4.7301940676961161e-03  4.7850358880836916e-03  4.8754866672823839e-03  5.0004435091421618e-03  5.1581552682802853e-03  5.3460146575883090e-03  5.5602908929348422e-03  5.7958169077008681e-03  6.0456691493887644e-03  6.3009167322507524e-03  6.5505641159774282e-03  6.7818453120011141e-03  6.9810103335777749e-03  7.1346416869534912e-03  7.2313524674853299e-03  7.2635125974994282e-03  7.2285364848951681e-03  7.1293351206359037e-03  6.9737868203044442e-03  6.7734020975672707e-03  6.5415934320148779e-03  6.2920095020281633e-03  6.0372670230911104e-03  5.7882082006135982e-03  5.5536345801475706e-03  5.3403754551747812e-03  5.1535378671232895e-03  4.9968202599350257e-03  4.8728175395916081e-03  4.7832817623076956e-03  4.7293250157373953e-03  4.7115620340445561e-03  5.4073937681875751e-03  5.4297162218012000e-03  5.4955503342462462e-03  5.6043946992942349e-03  5.7552895968587068e-03  5.9466347692806064e-03  6.1759175966903893e-03  6.4393402586545067e-03  6.7313457262351958e-03  7.0440753569262857e-03  7.3668553840075916e-03  7.6859015639682542e-03  7.9845151380627550e-03  8.2440480233846244e-03  8.4457655647343383e-03  8.5734188810322430e-03  8.6159635804678881e-03  8.5696332921940312e-03  8.4386755505042391e-03  8.2344921430453390e-03  7.9734923121434383e-03  7.6743735276015544e-03  7.3556071028111876e-03  7.0336557869796860e-03  6.7220769373707847e-03  6.4313657234598819e-03  6.1692612839031151e-03  5.9412531720382713e-03  5.7511099748608152e-03  5.6013399792359158e-03  5.4935539614272815e-03  5.4287304183667576e-03  5.4073937681875751e-03  6.0595662683733476e-03  6.0857262871499606e-03  6.1630528012809821e-03  6.2912459037841343e-03  6.4696645705311206e-03  6.6971139762662451e-03  6.9715097364147832e-03  7.2893830942047638e-03  7.6451967235123298e-03  8.0304819942134901e-03  8.4329098456031124e-03  8.8355723861631447e-03  9.2169272856196197e-03  9.5519151122905616e-03  9.8145517419694437e-03  9.9817771260119290e-03  1.0037681491672388e-02  9.9767978843782641e-03  9.8052843780715628e-03  9.5395514137731063e-03  9.2028602921805439e-03  8.8211038343751855e-03  8.4190544939884045e-03  8.0178987170695052e-03  7.6342215040506338e-03  7.2801143053403501e-03  6.9639010293275098e-03  6.6910493546513076e-03  6.4650086659368902e-03  6.2878731189743445e-03  6.1608622423429994e-03  6.0846485725537993e-03  6.0595662683733476e-03  6.6604961507501391e-03  6.6905688920761508e-03  6.7796848029530463e-03  6.9278574027545727e-03  7.1349619716099631e-03  7.4005059909092053e-03  7.7232396935513264e-03  8.1005320000906485e-03  8.5274285573591763e-03  8.9953542458456621e-03  9.4905727341670770e-03  9.9927915672993542e-03  1.0474626486226931e-02  1.0902800000269813e-02  1.1241674174307839e-02  1.1458892928622247e-02  1.1531802140250156e-02  1.1452549455261390e-02  1.1229937919797007e-02  1.0887295300945473e-02  1.0457220281725431e-02  9.9751813835396875e-03  9.4740244376374447e-03  8.9806273625490339e-03  8.5148452802151862e-03  8.0901124301440402e-03  7.7148375672536594e-03  7.3939108024381047e-03  7.1299614977628810e-03  6.9242694199751296e-03  6.7773700135857753e-03  6.6894345469433293e-03  6.6604961507501391e-03  7.2024142890129523e-03  7.2363663605366953e-03  7.3372522108215077e-03  7.5055080873584860e-03  7.7417243474418524e-03  8.0464207696261149e-03  8.4196254240141970e-03  8.8601274813872224e-03  9.3642394550214978e-03  9.9239468572150033e-03  1.0524533707505113e-02  1.1142203839784025e-02  1.1742768440052483e-02  1.2282803226218747e-02  1.2714334819456193e-02  1.2992870117514686e-02  1.3086826758835655e-02  1.2985153343320430e-02  1.2700133864125617e-02  1.2264207921999020e-02  1.1722146761423732e-02  1.1121658269502635e-02  1.0505569754754050e-02  9.9073985606853623e-03  9.3503841034067742e-03  8.8488792001908002e-03  8.4107181937915932e-03  8.0395381813230353e-03  7.7365726047479563e-03  7.5018477780903975e-03  7.3349069805307178e-03  7.2352217574194674e-03  7.2024142890129523e-03  7.6775717539260078e-03  7.7152264102928738e-03  7.8274349574280633e-03  8.0151449597651268e-03  8.2798294460127327e-03  8.6232941594408634e-03  9.0472563188164889e-03  9.5524950091405748e-03  1.0137298040263431e-02  1.0794958450072679e-02  1.1510352477027346e-02  1.2256262068409265e-02  1.2990960806331853e-02  1.3659165313520242e-02  1.4198049300371674e-02  1.4548234228360248e-02  1.4667053098216216e-02  1.4539426115889478e-02  1.4181913273089217e-02  1.3638195544827227e-02  1.2967950892662648e-02  1.2233643822793483e-02  1.1489806906745937e-02  1.0777348266312985e-02  1.0122829488475449e-02  9.5409669727738559e-03  9.0382856348539195e-03  8.6164677820397273e-03  8.2747836815691145e-03  8.0115944337687990e-03  7.8251754137085919e-03  7.7141280138007216e-03  7.6775717539260078e-03  8.0785163790955440e-03  8.1195264527662639e-03  8.2420916448044061e-03  8.4477174807089279e-03  8.7388562521233150e-03  9.1187723673227267e-03  9.5911552320450972e-03  1.0159198964433062e-02  1.0823739964656735e-02  1.1580045602928680e-02  1.2413196106252421e-02  1.3292864650920380e-02  1.4169526843218564e-02  1.4975034173952448e-02  1.5630037380474162e-02  1.6058340438207700e-02  1.6204616102306540e-02  1.6049110604747948e-02  1.5613190331238437e-02  1.4953274254855126e-02  1.4145855802650572e-02  1.3269854737251148e-02  1.2392574427623641e-02  1.1562639398427150e-02  1.0809672971217633e-02  1.0148176138513725e-02  9.5827120176112356e-03  9.1124366539662004e-03  8.7342271778833788e-03  8.4444891718052067e-03  8.2400500040803720e-03  8.1185376398335216e-03  8.0785163790955440e-03  8.3984267049199875e-03  8.4422620436460372e-03  8.5736501260117691e-03  8.7946397953783725e-03  9.1086501745790728e-03  9.5204110046191691e-03  1.0035636141704543e-02  1.0660067284612438e-02  1.1397337231266687e-02  1.2245069239066429e-02  1.3189042292484899e-02  1.4196353025674362e-02  1.5210126011327693e-02  1.6149583313091468e-02  1.6918814864852062e-02  1.7424547574926633e-02  1.7598468915800469e-02  1.7415942486111981e-02  1.6903151545079056e-02  1.6129446694421085e-02  1.5188366092230357e-02  1.4175383256981321e-02  1.3170446988265128e-02  1.2229564539742053e-02  1.1384973532749193e-02  1.0650511404273129e-02  1.0028412628431188e-02  9.5150543905639651e-03  9.1047750260431094e-03  8.7919579239953138e-03  8.5719631770302899e-03  8.4414476045396470e-03  8.3984267049199875e-03  8.6314766412530081e-03  8.6774319580063992e-03  8.8155549430327298e-03  9.0483509789569920e-03  9.3800613568824041e-03  9.8166787103535977e-03  1.0365689737408796e-02  1.1035110856172384e-02  1.1831139038812402e-02  1.2753670827550280e-02  1.3789406467370093e-02  1.4903565400758240e-02  1.6033217017821025e-02  1.7086822441952289e-02  1.7954115433741785e-02  1.8526848581931387e-02  1.8725205608167900e-02  1.8520120227076237e-02  1.7941891795522236e-02  1.7071159122179276e-02  1.6016369968585270e-02  1.4887429373475749e-02  1.3775205512039484e-02  1.2741934573039416e-02  1.1821871674914483e-02  1.1028020841942258e-02  1.0360383171091185e-02  9.8127788476247060e-03  9.3772613505812008e-03  9.0464245620808827e-03  8.8143482039834548e-03  8.6768507803692153e-03  8.6314766412530081e-03  8.7731918426449569e-03  8.8204179294802849e-03  8.9627211387805668e-03  9.2029079207631322e-03  9.5457684985490471e-03  9.9981477391977505e-03  1.0568742852112062e-02  1.1267145438258354e-02  1.2101362249727153e-02  1.3072951358038551e-02  1.4169404889275150e-02  1.5354859632491627e-02  1.6562443472733095e-02  1.7693398245980686e-02  1.8627668731148767e-02  1.9246669766843083e-02  1.9462532108417759e-02  1.9242962024345812e-02  1.8620940376293610e-02  1.7684793157166017e-02  1.6553213639273312e-02  1.5346051520020818e-02  1.4161688115080857e-02  1.3066607884677660e-02  1.2096383008093443e-02  1.1263359849420109e-02  1.0565926869521867e-02  9.9960898178039822e-03  9.5442979619169768e-03  9.2018999291668610e-03  8.9620913650087178e-03  8.8201150912555273e-03  8.7731918426449569e-03  8.8207516105658496e-03  8.8683081793257696e-03  9.0119287815471384e-03  9.2545165714425313e-03  9.6010443927560842e-03  1.0058645540646486e-02  1.0636432988169521e-02  1.1344549009592343e-02  1.2191649703047893e-02  1.3179919309197258e-02  1.4297210364415933e-02  1.5507400808069295e-02  1.6742372527875818e-02  1.7900940839173693e-02  1.8859635533983374e-02  1.9496139589871630e-02  1.9719539305352900e-02  1.9496139589871619e-02  1.8859635533983350e-02  1.7900940839173658e-02  1.6742372527875783e-02  1.5507400808069255e-02  1.4297210364415891e-02  1.3179919309197216e-02  1.2191649703047846e-02  1.1344549009592305e-02  1.0636432988169492e-02  1.0058645540646461e-02  9.6010443927560599e-03  9.2545165714425157e-03  9.0119287815471315e-03  8.8683081793257679e-03  8.8207516105658496e-03  8.7731918426449552e-03  8.8201150912555291e-03  8.9620913650087231e-03  9.2018999291668749e-03  9.5442979619169976e-03  9.9960898178040047e-03  1.0565926869521895e-02  1.1263359849420144e-02  1.2096383008093486e-02  1.3066607884677705e-02  1.4161688115080900e-02  1.5346051520020861e-02  1.6553213639273350e-02  1.7684793157166059e-02  1.8620940376293638e-02  1.9242962024345826e-02  1.9462532108417762e-02  1.9246669766843076e-02  1.8627668731148746e-02  1.7693398245980662e-02  1.6562443472733061e-02  1.5354859632491587e-02  1.4169404889275112e-02  1.3072951358038513e-02  1.2101362249727111e-02  1.1267145438258316e-02  1.0568742852112024e-02  9.9981477391977262e-03  9.5457684985490246e-03  9.2029079207631148e-03  8.9627211387805564e-03  8.8204179294802832e-03  8.7731918426449552e-03  8.6314766412530081e-03  8.6768507803692170e-03  8.8143482039834600e-03  9.0464245620808913e-03  9.3772613505812147e-03  9.8127788476247216e-03  1.0360383171091208e-02  1.1028020841942290e-02  1.1821871674914526e-02  1.2741934573039460e-02  1.3775205512039533e-02  1.4887429373475789e-02  1.6016369968585308e-02  1.7071159122179314e-02  1.7941891795522264e-02  1.8520120227076255e-02  1.8725205608167914e-02  1.8526848581931380e-02  1.7954115433741771e-02  1.7086822441952264e-02  1.6033217017820987e-02  1.4903565400758198e-02  1.3789406467370058e-02  1.2753670827550249e-02  1.1831139038812367e-02  1.1035110856172351e-02  1.0365689737408765e-02  9.8166787103535699e-03  9.3800613568823799e-03  9.0483509789569781e-03  8.8155549430327246e-03  8.6774319580064027e-03  8.6314766412530081e-03  8.3984267049199857e-03  8.4414476045396470e-03  8.5719631770302951e-03  8.7919579239953208e-03  9.1047750260431232e-03  9.5150543905639824e-03  1.0028412628431214e-02  1.0650511404273153e-02  1.1384973532749235e-02  1.2229564539742100e-02  1.3170446988265177e-02  1.4175383256981363e-02  1.5188366092230395e-02  1.6129446694421117e-02  1.6903151545079091e-02  1.7415942486111998e-02  1.7598468915800473e-02  1.7424547574926622e-02  1.6918814864852045e-02  1.6149583313091447e-02  1.5210126011327658e-02  1.4196353025674312e-02  1.3189042292484842e-02  1.2245069239066394e-02  1.1397337231266652e-02  1.0660067284612404e-02  1.0035636141704510e-02  9.5204110046191448e-03  9.1086501745790520e-03  8.7946397953783621e-03  8.5736501260117639e-03  8.4422620436460389e-03  8.3984267049199857e-03  8.0785163790955423e-03  8.1185376398335181e-03  8.2400500040803737e-03  8.4444891718052119e-03  8.7342271778833910e-03  9.1124366539662160e-03  9.5827120176112564e-03  1.0148176138513756e-02  1.0809672971217670e-02  1.1562639398427192e-02  1.2392574427623686e-02  1.3269854737251188e-02  1.4145855802650610e-02  1.4953274254855153e-02  1.5613190331238458e-02  1.6049110604747958e-02  1.6204616102306540e-02  1.6058340438207693e-02  1.5630037380474152e-02  1.4975034173952424e-02  1.4169526843218528e-02  1.3292864650920317e-02  1.2413196106252368e-02  1.1580045602928636e-02  1.0823739964656699e-02  1.0159198964433029e-02  9.5911552320450660e-03  9.1187723673227007e-03  8.7388562521232959e-03  8.4477174807089175e-03  8.2420916448044008e-03  8.1195264527662639e-03  8.0785163790955423e-03  7.6775717539260078e-03  7.7141280138007234e-03  7.8251754137085953e-03  8.0115944337687973e-03  8.2747836815691214e-03  8.6164677820397377e-03  9.0382856348539386e-03  9.5409669727738802e-03  1.0122829488475475e-02  1.0777348266313018e-02  1.1489806906745972e-02  1.2233643822793513e-02  1.2967950892662681e-02  1.3638195544827260e-02  1.4181913273089238e-02  1.4539426115889492e-02  1.4667053098216217e-02  1.4548234228360239e-02  1.4198049300371657e-02  1.3659165313520214e-02  1.2990960806331822e-02  1.2256262068409213e-02  1.1510352477027294e-02  1.0794958450072634e-02  1.0137298040263393e-02  9.5524950091405401e-03  9.0472563188164577e-03  8.6232941594408356e-03  8.2798294460127136e-03  8.0151449597651130e-03  7.8274349574280564e-03  7.7152264102928712e-03  7.6775717539260078e-03  7.2024142890129515e-03  7.2352217574194700e-03  7.3349069805307239e-03  7.5018477780904019e-03  7.7365726047479624e-03  8.0395381813230457e-03  8.4107181937916071e-03  8.8488792001908175e-03  9.3503841034067985e-03  9.9073985606853900e-03  1.0505569754754078e-02  1.1121658269502661e-02  1.1722146761423769e-02  1.2264207921999058e-02  1.2700133864125645e-02  1.2985153343320441e-02  1.3086826758835652e-02  1.2992870117514673e-02  1.2714334819456176e-02  1.2282803226218723e-02  1.1742768440052452e-02  1.1142203839783989e-02  1.0524533707505074e-02  9.9239468572149634e-03  9.3642394550214562e-03  8.8601274813871790e-03  8.4196254240141658e-03  8.0464207696260906e-03  7.7417243474418342e-03  7.5055080873584739e-03  7.3372522108215016e-03  7.2363663605366935e-03  7.2024142890129515e-03  6.6604961507501391e-03  6.6894345469433346e-03  6.7773700135857805e-03  6.9242694199751348e-03  7.1299614977628871e-03  7.3939108024381143e-03  7.7148375672536715e-03  8.0901124301440558e-03  8.5148452802152087e-03  8.9806273625490582e-03  9.4740244376374724e-03  9.9751813835397170e-03  1.0457220281725467e-02  1.0887295300945508e-02  1.1229937919797026e-02  1.1452549455261397e-02  1.1531802140250144e-02  1.1458892928622233e-02  1.1241674174307815e-02  1.0902800000269783e-02  1.0474626486226898e-02  9.9927915672993230e-03  9.4905727341670423e-03  8.9953542458456274e-03  8.5274285573591416e-03  8.1005320000906156e-03  7.7232396935512961e-03  7.4005059909091802e-03  7.1349619716099474e-03  6.9278574027545605e-03  6.7796848029530411e-03  6.6905688920761500e-03  6.6604961507501391e-03  6.0595662683733519e-03  6.0846485725538036e-03  6.1608622423430029e-03  6.2878731189743480e-03  6.4650086659368972e-03  6.6910493546513171e-03  6.9639010293275167e-03  7.2801143053403657e-03  7.6342215040506563e-03  8.0178987170695278e-03  8.4190544939884288e-03  8.8211038343752116e-03  9.2028602921805733e-03  9.5395514137731289e-03  9.8052843780715715e-03  9.9767978843782641e-03  1.0037681491672380e-02  9.9817771260119117e-03  9.8145517419694125e-03  9.5519151122905304e-03  9.2169272856195833e-03  8.8355723861631100e-03  8.4329098456030829e-03  8.0304819942134606e-03  7.6451967235123030e-03  7.2893830942047395e-03  6.9715097364147589e-03  6.6971139762662269e-03  6.4696645705311076e-03  6.2912459037841239e-03  6.1630528012809795e-03  6.0857262871499632e-03  6.0595662683733519e-03  5.4073937681875829e-03  5.4287304183667645e-03  5.4935539614272867e-03  5.6013399792359210e-03  5.7511099748608248e-0